<?xml version="1.0" encoding="UTF-8"?>

<!-- generated on 2026-01-08T07:28:56.027197+01:00 by Eclipse SUMO GUI 1.25.0
<sumoConfiguration xmlns:xsi="http://www.w3.org/2001/XMLSchema-instance" xsi:noNamespaceSchemaLocation="http://sumo.dlr.de/xsd/sumoConfiguration.xsd">

    <input>
        <net-file value="D:\IP1\Project\Code\Simulation\2026-01-08-07-26-34\osm.net.xml.gz"/>
        <route-files value="D:\IP1\Project\Code\Simulation\2026-01-08-07-26-34\osm.bicycle.trips.xml,D:\IP1\Project\Code\Simulation\2026-01-08-07-26-34\osm.passenger.trips.xml,D:\IP1\Project\Code\Simulation\2026-01-08-07-26-34\osm.pedestrian.rou.xml"/>
        <additional-files value="D:\IP1\Project\Code\Simulation\2026-01-08-07-26-34\osm.poly.xml.gz,D:\IP1\Project\Code\Simulation\2026-01-08-07-26-34\output.add.xml"/>
    </input>

    <output>
        <tripinfo-output value="D:\IP1\Project\Code\Simulation\2026-01-08-07-26-34\tripinfos.xml"/>
        <statistic-output value="D:\IP1\Project\Code\Simulation\2026-01-08-07-26-34\stats.xml"/>
    </output>

    <processing>
        <ignore-route-errors value="true"/>
        <tls.actuated.jam-threshold value="30"/>
    </processing>

    <routing>
        <device.rerouting.adaptation-steps value="18"/>
        <device.rerouting.adaptation-interval value="10"/>
    </routing>

    <report>
        <verbose value="true"/>
        <duration-log.statistics value="true"/>
        <no-step-log value="true"/>
    </report>

    <gui_only>
        <gui-settings-file value="D:\IP1\Project\Code\Simulation\2026-01-08-07-26-34\osm.view.xml"/>
    </gui_only>

</sumoConfiguration>
-->

<meandata xmlns:xsi="http://www.w3.org/2001/XMLSchema-instance" xsi:noNamespaceSchemaLocation="http://sumo.dlr.de/xsd/meandata_file.xsd">
    <interval begin="0.00" end="459.00" id="wizard_example">
        <edge id="-1008871974#1" sampledSeconds="0.00" departed="0" arrived="0" entered="0" left="0" laneChangedFrom="0" laneChangedTo="0"/>
        <edge id="-1008871974#2" sampledSeconds="0.00" departed="0" arrived="0" entered="0" left="0" laneChangedFrom="0" laneChangedTo="0"/>
        <edge id="-1013207897#0" sampledSeconds="0.00" departed="0" arrived="0" entered="0" left="0" laneChangedFrom="0" laneChangedTo="0"/>
        <edge id="-1013207897#1" sampledSeconds="9.15" traveltime="4.57" overlapTraveltime="4.94" density="0.86" overlapDensity="0.94" laneDensity="0.86" occupancy="0.14" waitingTime="0.00" timeLoss="0.58" speed="4.63" speedRelative="0.83" departed="2" arrived="0" entered="0" left="2" laneChangedFrom="0" laneChangedTo="0" flow="14.34"/>
        <edge id="-1013207898" sampledSeconds="30.95" traveltime="9.97" overlapTraveltime="10.32" density="1.38" overlapDensity="1.42" laneDensity="1.38" occupancy="0.22" waitingTime="0.00" timeLoss="2.52" speed="4.75" speedRelative="0.85" departed="0" arrived="0" entered="3" left="3" laneChangedFrom="0" laneChangedTo="0" flow="23.52"/>
        <edge id="-1013207899#0" sampledSeconds="0.00" departed="0" arrived="0" entered="0" left="0" laneChangedFrom="0" laneChangedTo="0"/>
        <edge id="-1013207899#1" sampledSeconds="0.00" departed="0" arrived="0" entered="0" left="0" laneChangedFrom="0" laneChangedTo="0"/>
        <edge id="-1013210009" sampledSeconds="0.00" departed="0" arrived="0" entered="0" left="0" laneChangedFrom="0" laneChangedTo="0"/>
        <edge id="-1013334247" sampledSeconds="0.00" departed="0" arrived="0" entered="0" left="0" laneChangedFrom="0" laneChangedTo="0"/>
        <edge id="-1013334248#1" sampledSeconds="12.80" traveltime="12.53" overlapTraveltime="12.80" density="0.37" overlapDensity="0.38" laneDensity="0.37" occupancy="0.06" waitingTime="0.00" timeLoss="0.69" speed="5.91" speedRelative="1.06" departed="0" arrived="0" entered="1" left="1" laneChangedFrom="0" laneChangedTo="0" flow="7.85"/>
        <edge id="-1013334248#2" sampledSeconds="5.76" traveltime="6.06" overlapTraveltime="6.42" density="0.78" overlapDensity="0.84" laneDensity="0.78" occupancy="0.13" waitingTime="0.00" timeLoss="3.38" speed="2.58" speedRelative="0.46" departed="1" arrived="0" entered="0" left="1" laneChangedFrom="0" laneChangedTo="0" flow="7.26"/>
        <edge id="-1013334248#3" sampledSeconds="0.00" departed="0" arrived="0" entered="0" left="0" laneChangedFrom="0" laneChangedTo="0"/>
        <edge id="-1013334249" sampledSeconds="0.00" departed="0" arrived="0" entered="0" left="0" laneChangedFrom="0" laneChangedTo="0"/>
        <edge id="-1013334250" sampledSeconds="0.00" departed="0" arrived="0" entered="0" left="0" laneChangedFrom="0" laneChangedTo="0"/>
        <edge id="-1013334253" sampledSeconds="0.00" departed="0" arrived="0" entered="0" left="0" laneChangedFrom="0" laneChangedTo="0"/>
        <edge id="-1013334254#0" sampledSeconds="0.00" departed="0" arrived="0" entered="0" left="0" laneChangedFrom="0" laneChangedTo="0"/>
        <edge id="-1013334254#1" sampledSeconds="0.00" departed="0" arrived="0" entered="0" left="0" laneChangedFrom="0" laneChangedTo="0"/>
        <edge id="-1013334255" sampledSeconds="0.00" departed="0" arrived="0" entered="0" left="0" laneChangedFrom="0" laneChangedTo="0"/>
        <edge id="-1013334256#0" sampledSeconds="0.00" departed="0" arrived="0" entered="0" left="0" laneChangedFrom="0" laneChangedTo="0"/>
        <edge id="-1013334256#1" sampledSeconds="0.00" departed="0" arrived="0" entered="0" left="0" laneChangedFrom="0" laneChangedTo="0"/>
        <edge id="-1013334257#0" sampledSeconds="0.00" departed="0" arrived="0" entered="0" left="0" laneChangedFrom="0" laneChangedTo="0"/>
        <edge id="-1013334257#1" sampledSeconds="0.00" departed="0" arrived="0" entered="0" left="0" laneChangedFrom="0" laneChangedTo="0"/>
        <edge id="-1013334257#2" sampledSeconds="0.00" departed="0" arrived="0" entered="0" left="0" laneChangedFrom="0" laneChangedTo="0"/>
        <edge id="-1013334257#3" sampledSeconds="0.00" departed="0" arrived="0" entered="0" left="0" laneChangedFrom="0" laneChangedTo="0"/>
        <edge id="-1013334257#4" sampledSeconds="0.00" departed="0" arrived="0" entered="0" left="0" laneChangedFrom="0" laneChangedTo="0"/>
        <edge id="-1013334258" sampledSeconds="0.00" departed="0" arrived="0" entered="0" left="0" laneChangedFrom="0" laneChangedTo="0"/>
        <edge id="-1013334259" sampledSeconds="10.15" traveltime="10.30" overlapTraveltime="10.63" density="0.60" overlapDensity="0.62" laneDensity="0.60" occupancy="0.10" waitingTime="0.00" timeLoss="2.94" speed="3.49" speedRelative="0.63" departed="1" arrived="0" entered="0" left="1" laneChangedFrom="0" laneChangedTo="0" flow="7.56"/>
        <edge id="-1013334262" sampledSeconds="0.00" departed="0" arrived="0" entered="0" left="0" laneChangedFrom="0" laneChangedTo="0"/>
        <edge id="-1013334265" sampledSeconds="0.00" departed="0" arrived="0" entered="0" left="0" laneChangedFrom="0" laneChangedTo="0"/>
        <edge id="-1015293772" sampledSeconds="0.58" traveltime="0.06" overlapTraveltime="0.58" density="0.71" overlapDensity="6.35" laneDensity="0.71" occupancy="0.11" waitingTime="0.00" timeLoss="0.26" speed="3.09" speedRelative="0.56" departed="0" arrived="0" entered="1" left="1" laneChangedFrom="0" laneChangedTo="0" flow="7.84"/>
        <edge id="-1021712286#0" sampledSeconds="0.00" departed="0" arrived="0" entered="0" left="0" laneChangedFrom="0" laneChangedTo="0"/>
        <edge id="-1021712286#1" sampledSeconds="0.00" departed="0" arrived="0" entered="0" left="0" laneChangedFrom="0" laneChangedTo="0"/>
        <edge id="-1021712286#2" sampledSeconds="0.00" departed="0" arrived="0" entered="0" left="0" laneChangedFrom="0" laneChangedTo="0"/>
        <edge id="-1021712286#3" sampledSeconds="0.00" departed="0" arrived="0" entered="0" left="0" laneChangedFrom="0" laneChangedTo="0"/>
        <edge id="-1023699859" sampledSeconds="0.00" departed="0" arrived="0" entered="0" left="0" laneChangedFrom="0" laneChangedTo="0"/>
        <edge id="-1023699861#0" sampledSeconds="0.00" departed="0" arrived="0" entered="0" left="0" laneChangedFrom="0" laneChangedTo="0"/>
        <edge id="-1023699861#1" sampledSeconds="0.00" departed="0" arrived="0" entered="0" left="0" laneChangedFrom="0" laneChangedTo="0"/>
        <edge id="-1023699861#2" sampledSeconds="0.00" departed="0" arrived="0" entered="0" left="0" laneChangedFrom="0" laneChangedTo="0"/>
        <edge id="-1023699862#0" sampledSeconds="24.66" traveltime="24.32" overlapTraveltime="24.66" density="0.44" overlapDensity="0.45" laneDensity="0.44" occupancy="0.07" waitingTime="0.00" timeLoss="1.40" speed="4.93" speedRelative="0.89" departed="0" arrived="0" entered="1" left="1" laneChangedFrom="0" laneChangedTo="0" flow="7.84"/>
        <edge id="-1023699862#1" sampledSeconds="0.00" departed="0" arrived="0" entered="0" left="0" laneChangedFrom="0" laneChangedTo="0"/>
        <edge id="-1023699873" sampledSeconds="113.94" traveltime="96.75" overlapTraveltime="97.08" density="0.51" overlapDensity="0.51" laneDensity="0.51" occupancy="0.08" waitingTime="0.00" timeLoss="6.07" speed="5.04" speedRelative="0.91" departed="0" arrived="0" entered="3" left="1" laneChangedFrom="0" laneChangedTo="0" flow="9.21"/>
        <edge id="-1026143462" sampledSeconds="0.00" departed="0" arrived="0" entered="0" left="0" laneChangedFrom="0" laneChangedTo="0"/>
        <edge id="-1026143463#0" sampledSeconds="3.94" traveltime="1.65" overlapTraveltime="1.97" density="0.85" overlapDensity="1.02" laneDensity="0.85" occupancy="0.14" waitingTime="0.00" timeLoss="0.29" speed="5.09" speedRelative="0.92" departed="0" arrived="0" entered="2" left="2" laneChangedFrom="0" laneChangedTo="0" flow="15.60"/>
        <edge id="-1026143463#1" sampledSeconds="1.42" traveltime="0.38" overlapTraveltime="0.71" density="0.88" overlapDensity="1.62" laneDensity="0.88" occupancy="0.14" waitingTime="0.00" timeLoss="0.14" speed="4.95" speedRelative="0.89" departed="0" arrived="0" entered="2" left="2" laneChangedFrom="0" laneChangedTo="0" flow="15.65"/>
        <edge id="-1026143465#2" sampledSeconds="35.06" traveltime="5.52" overlapTraveltime="5.84" density="2.47" overlapDensity="2.62" laneDensity="2.47" occupancy="0.40" waitingTime="0.00" timeLoss="3.54" speed="5.27" speedRelative="0.95" departed="0" arrived="0" entered="6" left="6" laneChangedFrom="0" laneChangedTo="0" flow="46.91"/>
        <edge id="-1026143465#3" sampledSeconds="0.00" departed="0" arrived="0" entered="0" left="0" laneChangedFrom="0" laneChangedTo="0"/>
        <edge id="-1026143466#0" sampledSeconds="0.00" departed="0" arrived="0" entered="0" left="0" laneChangedFrom="0" laneChangedTo="0"/>
        <edge id="-1026143466#2" sampledSeconds="0.00" departed="0" arrived="0" entered="0" left="0" laneChangedFrom="0" laneChangedTo="0"/>
        <edge id="-1026143466#3" sampledSeconds="0.00" departed="0" arrived="0" entered="0" left="0" laneChangedFrom="0" laneChangedTo="0"/>
        <edge id="-1026143466#4" sampledSeconds="1.96" traveltime="0.15" overlapTraveltime="0.98" density="3.16" overlapDensity="21.36" laneDensity="3.16" occupancy="0.38" waitingTime="0.00" timeLoss="1.36" speed="1.84" speedRelative="0.33" departed="0" arrived="0" entered="2" left="2" laneChangedFrom="0" laneChangedTo="0" flow="20.89"/>
        <edge id="-1026143466#5" sampledSeconds="12.01" traveltime="5.23" overlapTraveltime="6.01" density="0.80" overlapDensity="0.92" laneDensity="0.80" occupancy="0.13" waitingTime="0.00" timeLoss="2.10" speed="4.98" speedRelative="0.90" departed="0" arrived="0" entered="2" left="2" laneChangedFrom="0" laneChangedTo="0" flow="14.42"/>
        <edge id="-1026143467#0" sampledSeconds="8.21" traveltime="3.56" overlapTraveltime="4.07" density="0.71" overlapDensity="0.81" laneDensity="0.71" occupancy="0.21" waitingTime="0.00" timeLoss="0.45" speed="6.16" speedRelative="0.74" departed="0" arrived="0" entered="2" left="2" laneChangedFrom="0" laneChangedTo="0" flow="15.65"/>
        <edge id="-1026143467#2" sampledSeconds="139.45" traveltime="27.15" overlapTraveltime="27.58" density="6.74" overlapDensity="6.92" laneDensity="6.74" occupancy="1.19" waitingTime="88.00" timeLoss="100.88" speed="1.66" speedRelative="0.20" departed="0" arrived="0" entered="5" left="5" laneChangedFrom="0" laneChangedTo="0" flow="40.15"/>
        <edge id="-1026143467#3" sampledSeconds="14.10" traveltime="4.60" overlapTraveltime="5.03" density="1.19" overlapDensity="1.31" laneDensity="1.19" occupancy="0.33" waitingTime="0.00" timeLoss="2.15" speed="5.22" speedRelative="0.63" departed="1" arrived="0" entered="2" left="3" laneChangedFrom="0" laneChangedTo="0" flow="22.29"/>
        <edge id="-1026143468#1" sampledSeconds="0.00" departed="0" arrived="0" entered="0" left="0" laneChangedFrom="0" laneChangedTo="0"/>
        <edge id="-1026143472" sampledSeconds="0.00" departed="0" arrived="0" entered="0" left="0" laneChangedFrom="0" laneChangedTo="0"/>
        <edge id="-1026161829#0" sampledSeconds="14.60" traveltime="6.63" overlapTraveltime="7.27" density="0.73" overlapDensity="0.80" laneDensity="0.73" occupancy="0.23" waitingTime="0.00" timeLoss="1.02" speed="5.89" speedRelative="0.71" departed="0" arrived="0" entered="2" left="2" laneChangedFrom="0" laneChangedTo="0" flow="15.44"/>
        <edge id="-1026161829#1" sampledSeconds="6.12" traveltime="1.58" overlapTraveltime="2.03" density="1.17" overlapDensity="1.51" laneDensity="1.17" occupancy="0.30" waitingTime="0.00" timeLoss="0.45" speed="5.68" speedRelative="0.68" departed="0" arrived="0" entered="3" left="3" laneChangedFrom="0" laneChangedTo="0" flow="23.88"/>
        <edge id="-1026201965#1" sampledSeconds="29.39" traveltime="3.76" overlapTraveltime="4.41" density="3.53" overlapDensity="4.14" laneDensity="3.53" occupancy="0.98" waitingTime="2.00" timeLoss="11.95" speed="4.13" speedRelative="0.30" departed="1" arrived="0" entered="6" left="7" laneChangedFrom="0" laneChangedTo="0" flow="52.40"/>
        <edge id="-1026435648" sampledSeconds="0.00" departed="0" arrived="0" entered="0" left="0" laneChangedFrom="0" laneChangedTo="0"/>
        <edge id="-103240673#2" sampledSeconds="0.00" departed="0" arrived="0" entered="0" left="0" laneChangedFrom="0" laneChangedTo="0"/>
        <edge id="-103240673#3" sampledSeconds="0.00" departed="0" arrived="0" entered="0" left="0" laneChangedFrom="0" laneChangedTo="0"/>
        <edge id="-103240673#4" sampledSeconds="0.00" departed="0" arrived="0" entered="0" left="0" laneChangedFrom="0" laneChangedTo="0"/>
        <edge id="-1037168980" sampledSeconds="29.15" traveltime="9.41" overlapTraveltime="9.72" density="1.27" overlapDensity="1.31" laneDensity="1.27" occupancy="0.20" waitingTime="0.00" timeLoss="2.07" speed="5.15" speedRelative="0.93" departed="0" arrived="0" entered="3" left="3" laneChangedFrom="0" laneChangedTo="0" flow="23.53"/>
        <edge id="-1039273705#0" sampledSeconds="0.00" departed="0" arrived="0" entered="0" left="0" laneChangedFrom="0" laneChangedTo="0"/>
        <edge id="-1039273705#1" sampledSeconds="0.00" departed="0" arrived="0" entered="0" left="0" laneChangedFrom="0" laneChangedTo="0"/>
        <edge id="-1039273706#0" sampledSeconds="1.23" traveltime="0.86" overlapTraveltime="1.23" density="0.59" overlapDensity="0.84" laneDensity="0.59" occupancy="0.09" waitingTime="0.00" timeLoss="0.46" speed="3.90" speedRelative="0.70" departed="0" arrived="0" entered="1" left="1" laneChangedFrom="0" laneChangedTo="0" flow="8.29"/>
        <edge id="-1041940218#0" sampledSeconds="0.00" departed="0" arrived="0" entered="0" left="0" laneChangedFrom="0" laneChangedTo="0"/>
        <edge id="-1041940218#1" sampledSeconds="0.00" departed="0" arrived="0" entered="0" left="0" laneChangedFrom="0" laneChangedTo="0"/>
        <edge id="-1050727834" sampledSeconds="0.00" departed="0" arrived="0" entered="0" left="0" laneChangedFrom="0" laneChangedTo="0"/>
        <edge id="-1051653546" sampledSeconds="4.66" traveltime="1.92" overlapTraveltime="2.33" density="0.85" overlapDensity="1.03" laneDensity="0.85" occupancy="0.14" waitingTime="0.00" timeLoss="0.19" speed="4.94" speedRelative="0.89" departed="0" arrived="0" entered="2" left="2" laneChangedFrom="0" laneChangedTo="0" flow="15.04"/>
        <edge id="-1053900744" sampledSeconds="0.00" departed="0" arrived="0" entered="0" left="0" laneChangedFrom="0" laneChangedTo="0"/>
        <edge id="-1062471108" sampledSeconds="0.00" departed="0" arrived="0" entered="0" left="0" laneChangedFrom="0" laneChangedTo="0"/>
        <edge id="-1062471110#0" sampledSeconds="0.00" departed="0" arrived="0" entered="0" left="0" laneChangedFrom="0" laneChangedTo="0"/>
        <edge id="-1062471111" sampledSeconds="0.00" departed="0" arrived="0" entered="0" left="0" laneChangedFrom="0" laneChangedTo="0"/>
        <edge id="-1062471112" sampledSeconds="0.00" departed="0" arrived="0" entered="0" left="0" laneChangedFrom="0" laneChangedTo="0"/>
        <edge id="-1062999696" sampledSeconds="0.00" departed="0" arrived="0" entered="0" left="0" laneChangedFrom="0" laneChangedTo="0"/>
        <edge id="-1063984910" sampledSeconds="0.00" departed="0" arrived="0" entered="0" left="0" laneChangedFrom="0" laneChangedTo="0"/>
        <edge id="-1064583966" sampledSeconds="0.00" departed="0" arrived="0" entered="0" left="0" laneChangedFrom="0" laneChangedTo="0"/>
        <edge id="-1067104749" sampledSeconds="43.67" traveltime="43.69" overlapTraveltime="43.97" density="0.37" overlapDensity="0.37" laneDensity="0.37" occupancy="0.06" waitingTime="0.00" timeLoss="2.34" speed="5.83" speedRelative="1.05" departed="1" arrived="0" entered="0" left="1" laneChangedFrom="0" laneChangedTo="0" flow="7.79"/>
        <edge id="-1070040332#0" sampledSeconds="0.00" departed="0" arrived="0" entered="0" left="0" laneChangedFrom="0" laneChangedTo="0"/>
        <edge id="-1070040332#1" sampledSeconds="0.00" departed="0" arrived="0" entered="0" left="0" laneChangedFrom="0" laneChangedTo="0"/>
        <edge id="-1070040332#2" sampledSeconds="0.00" departed="0" arrived="0" entered="0" left="0" laneChangedFrom="0" laneChangedTo="0"/>
        <edge id="-1070040332#3" sampledSeconds="0.00" departed="0" arrived="0" entered="0" left="0" laneChangedFrom="0" laneChangedTo="0"/>
        <edge id="-1070810242#0" sampledSeconds="0.00" departed="0" arrived="0" entered="0" left="0" laneChangedFrom="0" laneChangedTo="0"/>
        <edge id="-1070810243#0" sampledSeconds="15.48" traveltime="37.88" overlapTraveltime="38.27" density="0.21" overlapDensity="0.21" laneDensity="0.21" occupancy="0.03" waitingTime="0.00" timeLoss="0.94" speed="4.14" speedRelative="0.75" departed="0" arrived="0" entered="1" left="0" laneChangedFrom="0" laneChangedTo="0" flow="3.21"/>
        <edge id="-1070810243#1" sampledSeconds="12.96" traveltime="12.59" overlapTraveltime="12.96" density="0.55" overlapDensity="0.57" laneDensity="0.55" occupancy="0.09" waitingTime="0.00" timeLoss="1.28" speed="3.98" speedRelative="0.72" departed="0" arrived="0" entered="1" left="1" laneChangedFrom="0" laneChangedTo="0" flow="7.86"/>
        <edge id="-1070810243#2" sampledSeconds="0.00" departed="0" arrived="0" entered="0" left="0" laneChangedFrom="0" laneChangedTo="0"/>
        <edge id="-1070810243#3" sampledSeconds="1.23" traveltime="1.36" overlapTraveltime="1.86" density="0.44" overlapDensity="0.78" laneDensity="0.44" occupancy="0.10" waitingTime="0.00" timeLoss="0.64" speed="2.70" speedRelative="0.49" departed="1" arrived="0" entered="0" left="1" laneChangedFrom="0" laneChangedTo="0" flow="4.24"/>
        <edge id="-1070810244" sampledSeconds="0.00" departed="0" arrived="0" entered="0" left="0" laneChangedFrom="0" laneChangedTo="0"/>
        <edge id="-1070810245" sampledSeconds="0.00" departed="0" arrived="0" entered="0" left="0" laneChangedFrom="0" laneChangedTo="0"/>
        <edge id="-1070810246#0" sampledSeconds="0.00" departed="0" arrived="0" entered="0" left="0" laneChangedFrom="0" laneChangedTo="0"/>
        <edge id="-1070810246#1" sampledSeconds="0.00" departed="0" arrived="0" entered="0" left="0" laneChangedFrom="0" laneChangedTo="0"/>
        <edge id="-1070810246#2" sampledSeconds="0.00" departed="0" arrived="0" entered="0" left="0" laneChangedFrom="0" laneChangedTo="0"/>
        <edge id="-1070810246#3" sampledSeconds="0.00" departed="0" arrived="0" entered="0" left="0" laneChangedFrom="0" laneChangedTo="0"/>
        <edge id="-1070810247" sampledSeconds="2.35" traveltime="1.92" overlapTraveltime="2.35" density="0.50" overlapDensity="0.62" laneDensity="0.50" occupancy="0.08" waitingTime="0.00" timeLoss="0.22" speed="4.22" speedRelative="0.76" departed="0" arrived="0" entered="1" left="1" laneChangedFrom="0" laneChangedTo="0" flow="7.65"/>
        <edge id="-1070810248" sampledSeconds="0.00" departed="0" arrived="0" entered="0" left="0" laneChangedFrom="0" laneChangedTo="0"/>
        <edge id="-1071128134#1" sampledSeconds="0.00" departed="0" arrived="0" entered="0" left="0" laneChangedFrom="0" laneChangedTo="0"/>
        <edge id="-1071128134#2" sampledSeconds="0.00" departed="0" arrived="0" entered="0" left="0" laneChangedFrom="0" laneChangedTo="0"/>
        <edge id="-1071128134#3" sampledSeconds="0.00" departed="0" arrived="0" entered="0" left="0" laneChangedFrom="0" laneChangedTo="0"/>
        <edge id="-1071128135#0" sampledSeconds="0.00" departed="0" arrived="0" entered="0" left="0" laneChangedFrom="0" laneChangedTo="0"/>
        <edge id="-1071128135#1" sampledSeconds="0.00" departed="0" arrived="0" entered="0" left="0" laneChangedFrom="0" laneChangedTo="0"/>
        <edge id="-1071128136#0" sampledSeconds="0.00" departed="0" arrived="0" entered="0" left="0" laneChangedFrom="0" laneChangedTo="0"/>
        <edge id="-1071128136#1" sampledSeconds="0.00" departed="0" arrived="0" entered="0" left="0" laneChangedFrom="0" laneChangedTo="0"/>
        <edge id="-1071128137" sampledSeconds="0.00" departed="0" arrived="0" entered="0" left="0" laneChangedFrom="0" laneChangedTo="0"/>
        <edge id="-1071128138#0" sampledSeconds="0.00" departed="0" arrived="0" entered="0" left="0" laneChangedFrom="0" laneChangedTo="0"/>
        <edge id="-1071128138#1" sampledSeconds="0.00" departed="0" arrived="0" entered="0" left="0" laneChangedFrom="0" laneChangedTo="0"/>
        <edge id="-1071128138#2" sampledSeconds="0.00" departed="0" arrived="0" entered="0" left="0" laneChangedFrom="0" laneChangedTo="0"/>
        <edge id="-1071128138#3" sampledSeconds="0.00" departed="0" arrived="0" entered="0" left="0" laneChangedFrom="0" laneChangedTo="0"/>
        <edge id="-1072947215#0" sampledSeconds="0.00" departed="0" arrived="0" entered="0" left="0" laneChangedFrom="0" laneChangedTo="0"/>
        <edge id="-1072947216" sampledSeconds="0.00" departed="0" arrived="0" entered="0" left="0" laneChangedFrom="0" laneChangedTo="0"/>
        <edge id="-1073435067#0" sampledSeconds="0.00" departed="0" arrived="0" entered="0" left="0" laneChangedFrom="0" laneChangedTo="0"/>
        <edge id="-1073435067#1" sampledSeconds="0.00" departed="0" arrived="0" entered="0" left="0" laneChangedFrom="0" laneChangedTo="0"/>
        <edge id="-1073435071" sampledSeconds="0.00" departed="0" arrived="0" entered="0" left="0" laneChangedFrom="0" laneChangedTo="0"/>
        <edge id="-1073435072" sampledSeconds="0.00" departed="0" arrived="0" entered="0" left="0" laneChangedFrom="0" laneChangedTo="0"/>
        <edge id="-107470479" sampledSeconds="0.00" departed="0" arrived="0" entered="0" left="0" laneChangedFrom="0" laneChangedTo="0"/>
        <edge id="-1079097170#0" sampledSeconds="0.00" departed="0" arrived="0" entered="0" left="0" laneChangedFrom="0" laneChangedTo="0"/>
        <edge id="-1079097170#1" sampledSeconds="0.00" departed="0" arrived="0" entered="0" left="0" laneChangedFrom="0" laneChangedTo="0"/>
        <edge id="-1079097170#2" sampledSeconds="0.00" departed="0" arrived="0" entered="0" left="0" laneChangedFrom="0" laneChangedTo="0"/>
        <edge id="-1079100633#0" sampledSeconds="0.00" departed="0" arrived="0" entered="0" left="0" laneChangedFrom="0" laneChangedTo="0"/>
        <edge id="-1079100633#1" sampledSeconds="0.00" departed="0" arrived="0" entered="0" left="0" laneChangedFrom="0" laneChangedTo="0"/>
        <edge id="-1081189980" sampledSeconds="4.34" traveltime="3.66" overlapTraveltime="4.34" density="0.29" overlapDensity="0.34" laneDensity="0.29" occupancy="0.14" waitingTime="0.00" timeLoss="0.45" speed="7.56" speedRelative="0.91" departed="0" arrived="0" entered="1" left="1" laneChangedFrom="0" laneChangedTo="0" flow="7.81"/>
        <edge id="-108124417#0" sampledSeconds="0.00" departed="0" arrived="0" entered="0" left="0" laneChangedFrom="0" laneChangedTo="0"/>
        <edge id="-108124417#1" sampledSeconds="0.00" departed="0" arrived="0" entered="0" left="0" laneChangedFrom="0" laneChangedTo="0"/>
        <edge id="-108124417#2" sampledSeconds="0.00" departed="0" arrived="0" entered="0" left="0" laneChangedFrom="0" laneChangedTo="0"/>
        <edge id="-108124417#3" sampledSeconds="0.00" departed="0" arrived="0" entered="0" left="0" laneChangedFrom="0" laneChangedTo="0"/>
        <edge id="-108124417#4" sampledSeconds="0.00" departed="0" arrived="0" entered="0" left="0" laneChangedFrom="0" laneChangedTo="0"/>
        <edge id="-108124419#0" sampledSeconds="0.00" departed="0" arrived="0" entered="0" left="0" laneChangedFrom="0" laneChangedTo="0"/>
        <edge id="-108124419#1" sampledSeconds="0.00" departed="0" arrived="0" entered="0" left="0" laneChangedFrom="0" laneChangedTo="0"/>
        <edge id="-108124419#2" sampledSeconds="0.00" departed="0" arrived="0" entered="0" left="0" laneChangedFrom="0" laneChangedTo="0"/>
        <edge id="-108124420#0" sampledSeconds="0.00" departed="0" arrived="0" entered="0" left="0" laneChangedFrom="0" laneChangedTo="0"/>
        <edge id="-108124420#1" sampledSeconds="0.00" departed="0" arrived="0" entered="0" left="0" laneChangedFrom="0" laneChangedTo="0"/>
        <edge id="-108124420#2" sampledSeconds="0.00" departed="0" arrived="0" entered="0" left="0" laneChangedFrom="0" laneChangedTo="0"/>
        <edge id="-108124422#0" sampledSeconds="0.00" departed="0" arrived="0" entered="0" left="0" laneChangedFrom="0" laneChangedTo="0"/>
        <edge id="-108124422#1" sampledSeconds="0.00" departed="0" arrived="0" entered="0" left="0" laneChangedFrom="0" laneChangedTo="0"/>
        <edge id="-108124422#2" sampledSeconds="0.00" departed="0" arrived="0" entered="0" left="0" laneChangedFrom="0" laneChangedTo="0"/>
        <edge id="-108124422#3" sampledSeconds="0.00" departed="0" arrived="0" entered="0" left="0" laneChangedFrom="0" laneChangedTo="0"/>
        <edge id="-108124422#4" sampledSeconds="6.42" traveltime="6.07" overlapTraveltime="6.42" density="0.46" overlapDensity="0.48" laneDensity="0.46" occupancy="0.07" waitingTime="0.00" timeLoss="1.06" speed="4.77" speedRelative="0.86" departed="0" arrived="0" entered="1" left="1" laneChangedFrom="0" laneChangedTo="0" flow="7.83"/>
        <edge id="-108124424#0" sampledSeconds="0.00" departed="0" arrived="0" entered="0" left="0" laneChangedFrom="0" laneChangedTo="0"/>
        <edge id="-108124424#1" sampledSeconds="0.00" departed="0" arrived="0" entered="0" left="0" laneChangedFrom="0" laneChangedTo="0"/>
        <edge id="-108124424#2" sampledSeconds="0.00" departed="0" arrived="0" entered="0" left="0" laneChangedFrom="0" laneChangedTo="0"/>
        <edge id="-108124427" sampledSeconds="0.00" departed="0" arrived="0" entered="0" left="0" laneChangedFrom="0" laneChangedTo="0"/>
        <edge id="-108124428#0" sampledSeconds="0.00" departed="0" arrived="0" entered="0" left="0" laneChangedFrom="0" laneChangedTo="0"/>
        <edge id="-108124428#1" sampledSeconds="0.00" departed="0" arrived="0" entered="0" left="0" laneChangedFrom="0" laneChangedTo="0"/>
        <edge id="-108124428#2" sampledSeconds="0.00" departed="0" arrived="0" entered="0" left="0" laneChangedFrom="0" laneChangedTo="0"/>
        <edge id="-108124428#3" sampledSeconds="0.00" departed="0" arrived="0" entered="0" left="0" laneChangedFrom="0" laneChangedTo="0"/>
        <edge id="-1083353081#0" sampledSeconds="0.00" departed="0" arrived="0" entered="0" left="0" laneChangedFrom="0" laneChangedTo="0"/>
        <edge id="-1083353081#2" sampledSeconds="0.00" departed="0" arrived="0" entered="0" left="0" laneChangedFrom="0" laneChangedTo="0"/>
        <edge id="-1086024427#0" sampledSeconds="2.17" traveltime="0.47" overlapTraveltime="1.08" density="1.75" overlapDensity="4.00" laneDensity="1.75" occupancy="0.28" waitingTime="0.00" timeLoss="0.91" speed="2.56" speedRelative="0.92" departed="0" arrived="0" entered="2" left="2" laneChangedFrom="0" laneChangedTo="0" flow="16.12"/>
        <edge id="-1086024427#1" sampledSeconds="7.50" traveltime="4.02" overlapTraveltime="4.72" density="1.95" overlapDensity="2.44" laneDensity="1.95" occupancy="0.35" waitingTime="0.00" timeLoss="2.38" speed="1.76" speedRelative="0.63" departed="2" arrived="0" entered="0" left="2" laneChangedFrom="0" laneChangedTo="0" flow="12.37"/>
        <edge id="-1086024427#2" sampledSeconds="0.00" departed="0" arrived="0" entered="0" left="0" laneChangedFrom="0" laneChangedTo="0"/>
        <edge id="-1086024427#3" sampledSeconds="0.00" departed="0" arrived="0" entered="0" left="0" laneChangedFrom="0" laneChangedTo="0"/>
        <edge id="-1086025330#0" sampledSeconds="86.60" traveltime="11.86" overlapTraveltime="12.33" density="2.21" overlapDensity="2.30" laneDensity="1.10" occupancy="0.41" waitingTime="0.00" timeLoss="6.34" speed="6.95" speedRelative="0.83" departed="0" arrived="0" entered="7" left="7" laneChangedFrom="0" laneChangedTo="0" flow="55.20"/>
        <edge id="-1086025330#1" sampledSeconds="69.40" traveltime="11.20" overlapTraveltime="11.64" density="1.88" overlapDensity="1.96" laneDensity="0.94" occupancy="0.33" waitingTime="0.00" timeLoss="6.10" speed="6.94" speedRelative="0.83" departed="1" arrived="0" entered="5" left="6" laneChangedFrom="0" laneChangedTo="0" flow="46.84"/>