<?xml version="1.0" encoding="UTF-8"?>

<!-- generated on 2026-01-08T07:28:55.504935+01:00 by Eclipse SUMO GUI 1.25.0
<sumoConfiguration xmlns:xsi="http://www.w3.org/2001/XMLSchema-instance" xsi:noNamespaceSchemaLocation="http://sumo.dlr.de/xsd/sumoConfiguration.xsd">

    <input>
        <net-file value="D:\IP1\Project\Code\Simulation\2026-01-08-07-26-34\osm.net.xml.gz"/>
        <route-files value="D:\IP1\Project\Code\Simulation\2026-01-08-07-26-34\osm.bicycle.trips.xml,D:\IP1\Project\Code\Simulation\2026-01-08-07-26-34\osm.passenger.trips.xml,D:\IP1\Project\Code\Simulation\2026-01-08-07-26-34\osm.pedestrian.rou.xml"/>
        <additional-files value="D:\IP1\Project\Code\Simulation\2026-01-08-07-26-34\osm.poly.xml.gz,D:\IP1\Project\Code\Simulation\2026-01-08-07-26-34\output.add.xml"/>
    </input>

    <output>
        <tripinfo-output value="D:\IP1\Project\Code\Simulation\2026-01-08-07-26-34\tripinfos.xml"/>
        <statistic-output value="D:\IP1\Project\Code\Simulation\2026-01-08-07-26-34\stats.xml"/>
    </output>

    <processing>
        <ignore-route-errors value="true"/>
        <tls.actuated.jam-threshold value="30"/>
    </processing>

    <routing>
        <device.rerouting.adaptation-steps value="18"/>
        <device.rerouting.adaptation-interval value="10"/>
    </routing>

    <report>
        <verbose value="true"/>
        <duration-log.statistics value="true"/>
        <no-step-log value="true"/>
    </report>

    <gui_only>
        <gui-settings-file value="D:\IP1\Project\Code\Simulation\2026-01-08-07-26-34\osm.view.xml"/>
    </gui_only>

</sumoConfiguration>
-->

<tripinfos xmlns:xsi="http://www.w3.org/2001/XMLSchema-instance" xsi:noNamespaceSchemaLocation="http://sumo.dlr.de/xsd/tripinfo_file.xsd">
    <tripinfo id="bike26" depart="37.00" departLane="-30025179#5_0" departPos="1.70" departSpeed="6.55" departDelay="0.94" arrival="109.00" arrivalLane="783248707#3_0" arrivalPos="9.85" arrivalSpeed="6.09" duration="72.00" routeLength="415.56" waitingTime="0.00" waitingCount="0" stopTime="0.00" timeLoss="7.18" rerouteNo="1" devices="tripinfo_bike26 routing_bike26" vType="bike_bicycle" speedFactor="1.18" vaporized=""/>
    <tripinfo id="bike3" depart="5.00" departLane="597837604#6_0" departPos="1.70" departSpeed="0.00" departDelay="0.84" arrival="129.00" arrivalLane="-1307080229#1_0" arrivalPos="24.20" arrivalSpeed="4.90" duration="124.00" routeLength="504.18" waitingTime="0.00" waitingCount="0" stopTime="0.00" timeLoss="15.32" rerouteNo="1" devices="tripinfo_bike3 routing_bike3" vType="bike_bicycle" speedFactor="0.89" vaporized=""/>
    <personinfo id="ped6" depart="6.00" type="ped_pedestrian" speedFactor="0.85" duration="132.00" waitingTime="0.00" timeLoss="14.45" traveltime="132.00">
        <walk depart="6.00" departPos="0.00" arrival="138.00" arrivalPos="6.00" duration="132.00" routeLength="139.53" timeLoss="14.45" maxSpeed="1.19" waitingTime="0.00"/>
    </personinfo>
    <tripinfo id="bike4" depart="6.00" departLane="-75488752#2_0" departPos="1.70" departSpeed="0.00" departDelay="0.45" arrival="153.00" arrivalLane="-1123466931_0" arrivalPos="71.75" arrivalSpeed="5.03" duration="147.00" routeLength="702.36" waitingTime="0.00" waitingCount="0" stopTime="0.00" timeLoss="11.46" rerouteNo="1" devices="tripinfo_bike4 routing_bike4" vType="bike_bicycle" speedFactor="0.94" vaporized=""/>
    <tripinfo id="bike39" depart="55.00" departLane="-30025158#0_0" departPos="1.70" departSpeed="0.00" departDelay="0.91" arrival="156.00" arrivalLane="-30024907_0" arrivalPos="30.02" arrivalSpeed="5.18" duration="101.00" routeLength="508.51" waitingTime="0.00" waitingCount="0" stopTime="0.00" timeLoss="11.44" rerouteNo="1" devices="tripinfo_bike39 routing_bike39" vType="bike_bicycle" speedFactor="1.04" vaporized=""/>
    <tripinfo id="veh44" depart="74.00" departLane="-746032766#0_1" departPos="5.10" departSpeed="0.00" departDelay="0.75" arrival="166.00" arrivalLane="20447165#1_0" arrivalPos="4.18" arrivalSpeed="8.07" duration="92.00" routeLength="718.30" waitingTime="0.00" waitingCount="0" stopTime="0.00" timeLoss="12.12" rerouteNo="1" devices="tripinfo_veh44 routing_veh44" vType="veh_passenger" speedFactor="1.10" vaporized=""/>
    <tripinfo id="bike77" depart="107.00" departLane="-233629756#6_0" departPos="1.70" departSpeed="0.00" departDelay="0.22" arrival="185.00" arrivalLane="-233629756#9_0" arrivalPos="8.44" arrivalSpeed="5.31" duration="78.00" routeLength="361.86" waitingTime="2.00" waitingCount="1" stopTime="0.00" timeLoss="12.14" rerouteNo="1" devices="tripinfo_bike77 routing_bike77" vType="bike_bicycle" speedFactor="1.00" vaporized=""/>
    <personinfo id="ped24" depart="24.00" type="ped_pedestrian" speedFactor="1.09" duration="163.00" waitingTime="0.00" timeLoss="16.19" traveltime="163.00">
        <walk depart="24.00" departPos="0.00" arrival="187.00" arrivalPos="0.17" duration="163.00" routeLength="223.21" timeLoss="16.19" maxSpeed="1.52" waitingTime="0.00"/>
    </personinfo>
    <tripinfo id="veh74" depart="124.00" departLane="-233525232#0_2" departPos="0.20" departSpeed="0.00" departDelay="0.81" arrival="189.00" arrivalLane="68122526#0_0" arrivalPos="12.21" arrivalSpeed="8.82" duration="65.00" routeLength="406.27" waitingTime="0.00" waitingCount="0" stopTime="0.00" timeLoss="7.76" rerouteNo="1" devices="tripinfo_veh74 routing_veh74" vType="veh_passenger" speedFactor="0.84" vaporized=""/>
    <tripinfo id="veh13" depart="22.00" departLane="-1344385469#0_1" departPos="5.10" departSpeed="0.00" departDelay="0.36" arrival="190.00" arrivalLane="697849525_1" arrivalPos="3.03" arrivalSpeed="5.93" duration="168.00" routeLength="1336.82" waitingTime="0.00" waitingCount="0" stopTime="0.00" timeLoss="17.56" rerouteNo="1" devices="tripinfo_veh13 routing_veh13" vType="veh_passenger" speedFactor="1.08" vaporized=""/>
    <personinfo id="ped134" depart="132.00" type="ped_pedestrian" speedFactor="1.02" duration="66.00" waitingTime="3.00" timeLoss="12.44" traveltime="66.00">
        <walk depart="132.00" departPos="0.00" arrival="198.00" arrivalPos="31.82" duration="66.00" routeLength="75.75" timeLoss="12.44" maxSpeed="1.41" waitingTime="3.00"/>
    </personinfo>
    <tripinfo id="bike30" depart="42.00" departLane="96152229#7_0" departPos="1.70" departSpeed="0.00" departDelay="0.40" arrival="202.00" arrivalLane="1435723284_0" arrivalPos="11.02" arrivalSpeed="4.37" duration="160.00" routeLength="793.91" waitingTime="0.00" waitingCount="0" stopTime="0.00" timeLoss="14.82" rerouteNo="1" devices="tripinfo_bike30 routing_bike30" vType="bike_bicycle" speedFactor="0.99" vaporized=""/>
    <tripinfo id="bike22" depart="31.00" departLane="-1241456245#1_0" departPos="1.70" departSpeed="0.00" departDelay="0.49" arrival="205.00" arrivalLane="-262879710#3_0" arrivalPos="180.46" arrivalSpeed="4.73" duration="174.00" routeLength="808.51" waitingTime="0.00" waitingCount="0" stopTime="0.00" timeLoss="14.18" rerouteNo="1" devices="tripinfo_bike22 routing_bike22" vType="bike_bicycle" speedFactor="0.92" vaporized=""/>
    <tripinfo id="bike104" depart="145.00" departLane="-928846824#1_0" departPos="1.70" departSpeed="0.00" departDelay="0.77" arrival="206.00" arrivalLane="-928846806#0_0" arrivalPos="8.86" arrivalSpeed="5.59" duration="61.00" routeLength="318.18" waitingTime="0.00" waitingCount="0" stopTime="0.00" timeLoss="6.59" rerouteNo="1" devices="tripinfo_bike104 routing_bike104" vType="bike_bicycle" speedFactor="1.06" vaporized=""/>
    <tripinfo id="bike40" depart="56.00" departLane="1241456245#0_0" departPos="1.70" departSpeed="0.00" departDelay="0.53" arrival="207.00" arrivalLane="-326551906#3_0" arrivalPos="15.00" arrivalSpeed="5.60" duration="151.00" routeLength="799.40" waitingTime="0.00" waitingCount="0" stopTime="0.00" timeLoss="12.28" rerouteNo="1" devices="tripinfo_bike40 routing_bike40" vType="bike_bicycle" speedFactor="1.04" vaporized=""/>
    <tripinfo id="bike34" depart="48.00" departLane="-42294716_0" departPos="1.70" departSpeed="6.12" departDelay="0.85" arrival="213.00" arrivalLane="-348546674_0" arrivalPos="180.20" arrivalSpeed="6.11" duration="165.00" routeLength="943.08" waitingTime="0.00" waitingCount="0" stopTime="0.00" timeLoss="10.02" rerouteNo="1" devices="tripinfo_bike34 routing_bike34" vType="bike_bicycle" speedFactor="1.10" vaporized=""/>
    <personinfo id="ped108" depart="106.00" type="ped_pedestrian" speedFactor="1.10" duration="110.00" waitingTime="1.00" timeLoss="13.35" traveltime="110.00">
        <walk depart="106.00" departPos="0.00" arrival="216.00" arrivalPos="0.10" duration="110.00" routeLength="147.04" timeLoss="13.35" maxSpeed="1.52" waitingTime="1.00"/>
    </personinfo>
    <tripinfo id="veh57" depart="95.00" departLane="20447181_0" departPos="5.10" departSpeed="0.00" departDelay="0.11" arrival="229.00" arrivalLane="-151912632_0" arrivalPos="82.57" arrivalSpeed="7.88" duration="134.00" routeLength="999.59" waitingTime="0.00" waitingCount="0" stopTime="0.00" timeLoss="14.70" rerouteNo="1" devices="tripinfo_veh57 routing_veh57" vType="veh_passenger" speedFactor="1.02" vaporized=""/>
    <tripinfo id="veh18" depart="30.00" departLane="145831277_0" departPos="5.10" departSpeed="30.69" departDelay="0.04" arrival="240.00" arrivalLane="392689407#5_0" arrivalPos="69.35" arrivalSpeed="7.97" duration="210.00" routeLength="2115.88" waitingTime="16.00" waitingCount="1" stopTime="0.00" timeLoss="35.64" rerouteNo="1" devices="tripinfo_veh18 routing_veh18" vType="veh_passenger" speedFactor="1.00" vaporized=""/>
    <tripinfo id="bike87" depart="121.00" departLane="-761587159_0" departPos="1.70" departSpeed="4.95" departDelay="0.35" arrival="242.00" arrivalLane="1073435067#0_0" arrivalPos="4.15" arrivalSpeed="4.42" duration="121.00" routeLength="553.65" waitingTime="0.00" waitingCount="0" stopTime="0.00" timeLoss="8.45" rerouteNo="1" devices="tripinfo_bike87 routing_bike87" vType="bike_bicycle" speedFactor="0.89" vaporized=""/>
    <tripinfo id="veh97" depart="162.00" departLane="118037210_1" departPos="5.10" departSpeed="0.00" departDelay="0.53" arrival="244.00" arrivalLane="622467607_1" arrivalPos="48.90" arrivalSpeed="7.89" duration="82.00" routeLength="519.83" waitingTime="8.00" waitingCount="1" stopTime="0.00" timeLoss="19.49" rerouteNo="1" devices="tripinfo_veh97 routing_veh97" vType="veh_passenger" speedFactor="1.01" vaporized=""/>
    <personinfo id="ped162" depart="159.00" type="ped_pedestrian" speedFactor="1.32" duration="92.00" waitingTime="1.00" timeLoss="11.58" traveltime="92.00">
        <walk depart="159.00" departPos="0.00" arrival="251.00" arrivalPos="0.12" duration="92.00" routeLength="147.49" timeLoss="11.58" maxSpeed="1.83" waitingTime="1.00"/>
    </personinfo>
    <tripinfo id="bike109" depart="152.00" departLane="119352416_0" departPos="1.70" departSpeed="5.61" departDelay="0.84" arrival="263.00" arrivalLane="30024994#1_0" arrivalPos="38.41" arrivalSpeed="5.12" duration="111.00" routeLength="567.33" waitingTime="1.00" waitingCount="1" stopTime="0.00" timeLoss="9.21" rerouteNo="1" devices="tripinfo_bike109 routing_bike109" vType="bike_bicycle" speedFactor="1.01" vaporized=""/>
    <tripinfo id="bike118" depart="164.00" departLane="-741201990#1_1" departPos="1.70" departSpeed="0.00" departDelay="0.36" arrival="267.00" arrivalLane="1338308401_0" arrivalPos="43.69" arrivalSpeed="5.49" duration="103.00" routeLength="533.17" waitingTime="0.00" waitingCount="0" stopTime="0.00" timeLoss="9.30" rerouteNo="1" devices="tripinfo_bike118 routing_bike118" vType="bike_bicycle" speedFactor="1.03" vaporized=""/>
    <tripinfo id="bike31" depart="43.00" departLane="1221117015_0" departPos="1.70" departSpeed="0.00" departDelay="0.01" arrival="269.00" arrivalLane="20437786_0" arrivalPos="12.93" arrivalSpeed="5.35" duration="226.00" routeLength="1180.93" waitingTime="0.00" waitingCount="0" stopTime="0.00" timeLoss="16.56" rerouteNo="1" devices="tripinfo_bike31 routing_bike31" vType="bike_bicycle" speedFactor="1.02" vaporized=""/>
    <tripinfo id="bike67" depart="93.00" departLane="30025158#0_0" departPos="1.70" departSpeed="0.00" departDelay="0.08" arrival="272.00" arrivalLane="-1373121530_0" arrivalPos="5.30" arrivalSpeed="3.99" duration="179.00" routeLength="848.77" waitingTime="1.00" waitingCount="1" stopTime="0.00" timeLoss="18.73" rerouteNo="1" devices="tripinfo_bike67 routing_bike67" vType="bike_bicycle" speedFactor="0.97" vaporized=""/>
    <tripinfo id="bike93" depart="129.00" departLane="-75488752#1_0" departPos="1.70" departSpeed="0.00" departDelay="0.03" arrival="279.00" arrivalLane="-384196608_1" arrivalPos="5.31" arrivalSpeed="3.27" duration="150.00" routeLength="676.52" waitingTime="0.00" waitingCount="0" stopTime="0.00" timeLoss="14.60" rerouteNo="1" devices="tripinfo_bike93 routing_bike93" vType="bike_bicycle" speedFactor="0.91" vaporized=""/>
    <personinfo id="ped44" depart="44.00" type="ped_pedestrian" speedFactor="1.11" duration="239.00" waitingTime="26.00" timeLoss="47.48" traveltime="239.00">
        <walk depart="44.00" departPos="0.00" arrival="283.00" arrivalPos="0.33" duration="239.00" routeLength="295.88" timeLoss="47.48" maxSpeed="1.54" waitingTime="26.00"/>
    </personinfo>
    <tripinfo id="veh66" depart="110.00" departLane="-1386671645#0_1" departPos="0.20" departSpeed="0.00" departDelay="0.13" arrival="283.00" arrivalLane="22736997#0_0" arrivalPos="15.65" arrivalSpeed="9.22" duration="173.00" routeLength="889.77" waitingTime="29.00" waitingCount="1" stopTime="0.00" timeLoss="49.89" rerouteNo="1" devices="tripinfo_veh66 routing_veh66" vType="veh_passenger" speedFactor="0.83" vaporized=""/>
    <tripinfo id="veh8" depart="14.00" departLane="-60844538_1" departPos="5.10" departSpeed="0.00" departDelay="0.68" arrival="288.00" arrivalLane="-141054099_1" arrivalPos="124.16" arrivalSpeed="9.78" duration="274.00" routeLength="2682.22" waitingTime="0.00" waitingCount="0" stopTime="0.00" timeLoss="30.06" rerouteNo="1" devices="tripinfo_veh8 routing_veh8" vType="veh_passenger" speedFactor="1.18" vaporized=""/>
    <tripinfo id="veh52" depart="87.00" departLane="-1344385469#0_1" departPos="5.10" departSpeed="0.00" departDelay="0.44" arrival="288.00" arrivalLane="-118793556#0_1" arrivalPos="49.69" arrivalSpeed="7.34" duration="201.00" routeLength="1115.34" waitingTime="30.00" waitingCount="2" stopTime="0.00" timeLoss="58.41" rerouteNo="1" devices="tripinfo_veh52 routing_veh52" vType="veh_passenger" speedFactor="0.95" vaporized=""/>
    <tripinfo id="veh111" depart="185.00" departLane="-888206251_1" departPos="5.10" departSpeed="0.00" departDelay="0.22" arrival="288.00" arrivalLane="-1336301651#0_1" arrivalPos="1.70" arrivalSpeed="6.71" duration="103.00" routeLength="627.78" waitingTime="0.00" waitingCount="0" stopTime="0.00" timeLoss="11.36" rerouteNo="1" devices="tripinfo_veh111 routing_veh111" vType="veh_passenger" speedFactor="0.84" vaporized=""/>
    <tripinfo id="veh75" depart="125.00" departLane="164014448_0" departPos="5.10" departSpeed="0.00" departDelay="0.15" arrival="290.00" arrivalLane="442773112#0_0" arrivalPos="17.12" arrivalSpeed="8.20" duration="165.00" routeLength="1232.25" waitingTime="0.00" waitingCount="0" stopTime="0.00" timeLoss="27.73" rerouteNo="1" devices="tripinfo_veh75 routing_veh75" vType="veh_passenger" speedFactor="1.06" vaporized=""/>
    <tripinfo id="veh105" depart="175.00" departLane="-22764743#0_1" departPos="5.10" departSpeed="0.00" departDelay="0.21" arrival="299.00" arrivalLane="219752764#1_0" arrivalPos="23.79" arrivalSpeed="8.05" duration="124.00" routeLength="760.64" waitingTime="12.00" waitingCount="1" stopTime="0.00" timeLoss="29.73" rerouteNo="1" devices="tripinfo_veh105 routing_veh105" vType="veh_passenger" speedFactor="0.98" vaporized=""/>
    <tripinfo id="bike84" depart="117.00" departLane="-961600908#2_0" departPos="1.01" departSpeed="0.00" departDelay="0.51" arrival="303.00" arrivalLane="384196612_0" arrivalPos="99.50" arrivalSpeed="5.11" duration="186.00" routeLength="865.45" waitingTime="10.00" waitingCount="1" stopTime="0.00" timeLoss="31.13" rerouteNo="1" devices="tripinfo_bike84 routing_bike84" vType="bike_bicycle" speedFactor="1.01" vaporized=""/>
    <tripinfo id="veh88" depart="147.00" departLane="-47519280#3_0" departPos="5.10" departSpeed="0.00" departDelay="0.51" arrival="306.00" arrivalLane="408197310#3_0" arrivalPos="6.24" arrivalSpeed="7.86" duration="159.00" routeLength="1042.30" waitingTime="23.00" waitingCount="2" stopTime="0.00" timeLoss="50.61" rerouteNo="1" devices="tripinfo_veh88 routing_veh88" vType="veh_passenger" speedFactor="1.04" vaporized=""/>
    <tripinfo id="veh6" depart="10.00" departLane="-97236167_0" departPos="5.10" departSpeed="8.87" departDelay="0.01" arrival="309.00" arrivalLane="-20437774_0" arrivalPos="49.26" arrivalSpeed="8.48" duration="299.00" routeLength="3540.59" waitingTime="18.00" waitingCount="1" stopTime="0.00" timeLoss="58.31" rerouteNo="1" devices="tripinfo_veh6 routing_veh6" vType="veh_passenger" speedFactor="1.06" vaporized=""/>
    <tripinfo id="veh42" depart="70.00" departLane="50648723#2_0" departPos="5.10" departSpeed="0.00" departDelay="0.08" arrival="309.00" arrivalLane="-67198498_0" arrivalPos="20.98" arrivalSpeed="7.30" duration="239.00" routeLength="1755.16" waitingTime="0.00" waitingCount="0" stopTime="0.00" timeLoss="27.54" rerouteNo="1" devices="tripinfo_veh42 routing_veh42" vType="veh_passenger" speedFactor="0.90" vaporized=""/>
    <tripinfo id="veh142" depart="237.00" departLane="-447214434_0" departPos="5.10" departSpeed="0.00" departDelay="0.62" arrival="312.00" arrivalLane="-55874614#0_0" arrivalPos="0.20" arrivalSpeed="13.14" duration="75.00" routeLength="600.55" waitingTime="0.00" waitingCount="0" stopTime="0.00" timeLoss="8.04" rerouteNo="1" devices="tripinfo_veh142 routing_veh142" vType="veh_passenger" speedFactor="0.98" vaporized=""/>
    <tripinfo id="veh40" depart="67.00" departLane="115229331_0" departPos="5.10" departSpeed="0.00" departDelay="0.41" arrival="313.00" arrivalLane="697712600#1_2" arrivalPos="22.21" arrivalSpeed="8.02" duration="246.00" routeLength="1608.52" waitingTime="20.00" waitingCount="2" stopTime="0.00" timeLoss="50.22" rerouteNo="1" devices="tripinfo_veh40 routing_veh40" vType="veh_passenger" speedFactor="0.97" vaporized=""/>
    <tripinfo id="veh129" depart="215.00" departLane="15229946#1_0" departPos="5.10" departSpeed="0.00" departDelay="0.26" arrival="315.00" arrivalLane="-374675896#1_1" arrivalPos="112.60" arrivalSpeed="8.00" duration="100.00" routeLength="778.39" waitingTime="0.00" waitingCount="0" stopTime="0.00" timeLoss="11.43" rerouteNo="1" devices="tripinfo_veh129 routing_veh129" vType="veh_passenger" speedFactor="1.05" vaporized=""/>
    <tripinfo id="bike178" depart="247.00" departLane="1339086267_0" departPos="1.70" departSpeed="0.00" departDelay="0.15" arrival="321.00" arrivalLane="118192675#0_0" arrivalPos="21.46" arrivalSpeed="5.31" duration="74.00" routeLength="378.74" waitingTime="0.00" waitingCount="0" stopTime="0.00" timeLoss="5.98" rerouteNo="1" devices="tripinfo_bike178 routing_bike178" vType="bike_bicycle" speedFactor="1.01" vaporized=""/>
    <tripinfo id="bike78" depart="109.00" departLane="-1210878267#1_0" departPos="1.70" departSpeed="0.00" departDelay="0.83" arrival="326.00" arrivalLane="142059680#1_0" arrivalPos="28.51" arrivalSpeed="5.41" duration="217.00" routeLength="1113.92" waitingTime="0.00" waitingCount="0" stopTime="0.00" timeLoss="17.93" rerouteNo="1" devices="tripinfo_bike78 routing_bike78" vType="bike_bicycle" speedFactor="1.02" vaporized=""/>
    <tripinfo id="veh140" depart="234.00" departLane="-134233676#7_1" departPos="5.10" departSpeed="0.00" departDelay="0.95" arrival="328.00" arrivalLane="-978781529#5_0" arrivalPos="3.16" arrivalSpeed="4.36" duration="94.00" routeLength="803.63" waitingTime="0.00" waitingCount="0" stopTime="0.00" timeLoss="15.48" rerouteNo="1" devices="tripinfo_veh140 routing_veh140" vType="veh_passenger" speedFactor="0.99" vaporized=""/>
    <tripinfo id="bike13" depart="19.00" departLane="-129628615#0_0" departPos="1.70" departSpeed="0.00" departDelay="0.97" arrival="331.00" arrivalLane="-1316999151#0_0" arrivalPos="104.80" arrivalSpeed="5.19" duration="312.00" routeLength="1512.42" waitingTime="0.00" waitingCount="0" stopTime="0.00" timeLoss="21.88" rerouteNo="1" devices="tripinfo_bike13 routing_bike13" vType="bike_bicycle" speedFactor="0.94" vaporized=""/>
    <tripinfo id="bike27" depart="38.00" departLane="142053903#3_0" departPos="1.70" departSpeed="0.00" departDelay="0.56" arrival="337.00" arrivalLane="1370994932#1_0" arrivalPos="0.20" arrivalSpeed="5.85" duration="299.00" routeLength="944.92" waitingTime="120.00" waitingCount="4" stopTime="0.00" timeLoss="150.74" rerouteNo="1" devices="tripinfo_bike27 routing_bike27" vType="bike_bicycle" speedFactor="1.15" vaporized=""/>
    <tripinfo id="bike160" depart="222.00" departLane="-47519280#10_0" departPos="1.70" departSpeed="0.00" departDelay="0.11" arrival="337.00" arrivalLane="75488751#0_0" arrivalPos="52.82" arrivalSpeed="5.92" duration="115.00" routeLength="638.62" waitingTime="0.00" waitingCount="0" stopTime="0.00" timeLoss="8.83" rerouteNo="1" devices="tripinfo_bike160 routing_bike160" vType="bike_bicycle" speedFactor="1.09" vaporized=""/>
    <tripinfo id="veh114" depart="190.00" departLane="1449718283_0" departPos="5.10" departSpeed="0.00" departDelay="0.23" arrival="345.00" arrivalLane="-339736822#0_0" arrivalPos="21.11" arrivalSpeed="13.52" duration="155.00" routeLength="1207.68" waitingTime="0.00" waitingCount="0" stopTime="0.00" timeLoss="16.99" rerouteNo="1" devices="tripinfo_veh114 routing_veh114" vType="veh_passenger" speedFactor="1.04" vaporized=""/>
    <personinfo id="ped283" depart="278.00" type="ped_pedestrian" speedFactor="1.03" duration="68.00" waitingTime="0.00" timeLoss="7.38" traveltime="68.00">
        <walk depart="278.00" departPos="0.00" arrival="346.00" arrivalPos="8.19" duration="68.00" routeLength="87.13" timeLoss="7.38" maxSpeed="1.44" waitingTime="0.00"/>
    </personinfo>
    <tripinfo id="bike43" depart="60.00" departLane="97236182_0" departPos="1.70" departSpeed="5.00" departDelay="0.37" arrival="348.00" arrivalLane="1180768761#4_0" arrivalPos="32.02" arrivalSpeed="1.91" duration="288.00" routeLength="1073.99" waitingTime="13.00" waitingCount="3" stopTime="0.00" timeLoss="48.83" rerouteNo="1" devices="tripinfo_bike43 routing_bike43" vType="bike_bicycle" speedFactor="0.90" vaporized=""/>
    <tripinfo id="veh67" depart="112.00" departLane="-174970475#4_1" departPos="5.10" departSpeed="0.00" departDelay="0.47" arrival="348.00" arrivalLane="-23791683#0_0" arrivalPos="63.06" arrivalSpeed="14.94" duration="236.00" routeLength="2043.23" waitingTime="0.00" waitingCount="0" stopTime="0.00" timeLoss="23.43" rerouteNo="1" devices="tripinfo_veh67 routing_veh67" vType="veh_passenger" speedFactor="1.09" vaporized=""/>
    <tripinfo id="veh47" depart="80.00" departLane="-527943457#1_1" departPos="5.10" departSpeed="0.00" departDelay="1.76" arrival="350.00" arrivalLane="-533535799#5_0" arrivalPos="33.91" arrivalSpeed="6.26" duration="270.00" routeLength="1827.21" waitingTime="16.00" waitingCount="2" stopTime="0.00" timeLoss="49.86" rerouteNo="1" devices="tripinfo_veh47 routing_veh47" vType="veh_passenger" speedFactor="0.84" vaporized=""/>
    <personinfo id="ped98" depart="97.00" type="ped_pedestrian" speedFactor="1.11" duration="256.00" waitingTime="0.00" timeLoss="26.72" traveltime="256.00">
        <walk depart="97.00" departPos="0.00" arrival="353.00" arrivalPos="0.86" duration="256.00" routeLength="355.04" timeLoss="26.72" maxSpeed="1.55" waitingTime="0.00"/>
    </personinfo>
    <tripinfo id="bike99" depart="138.00" departLane="504282966#2_0" departPos="1.70" departSpeed="0.00" departDelay="0.71" arrival="353.00" arrivalLane="-14778982_0" arrivalPos="17.59" arrivalSpeed="4.98" duration="215.00" routeLength="1055.57" waitingTime="0.00" waitingCount="0" stopTime="0.00" timeLoss="14.93" rerouteNo="1" devices="tripinfo_bike99 routing_bike99" vType="bike_bicycle" speedFactor="0.95" vaporized=""/>
    <tripinfo id="veh12" depart="20.00" departLane="-622467607_1" departPos="5.10" departSpeed="0.00" departDelay="0.02" arrival="357.00" arrivalLane="-131335282#3_0" arrivalPos="11.52" arrivalSpeed="7.16" duration="337.00" routeLength="2116.54" waitingTime="0.00" waitingCount="0" stopTime="0.00" timeLoss="38.50" rerouteNo="1" devices="tripinfo_veh12 routing_veh12" vType="veh_passenger" speedFactor="0.88" vaporized=""/>
    <tripinfo id="veh137" depart="229.00" departLane="-42294196#1_0" departPos="5.10" departSpeed="14.37" departDelay="0.94" arrival="357.00" arrivalLane="-97050361_0" arrivalPos="25.92" arrivalSpeed="12.70" duration="128.00" routeLength="1139.60" waitingTime="0.00" waitingCount="0" stopTime="0.00" timeLoss="22.54" rerouteNo="1" devices="tripinfo_veh137 routing_veh137" vType="veh_passenger" speedFactor="1.03" vaporized=""/>
    <tripinfo id="bike76" depart="106.00" departLane="-48240419#0_0" departPos="1.70" departSpeed="0.00" departDelay="0.60" arrival="359.00" arrivalLane="134233679#0_0" arrivalPos="9.86" arrivalSpeed="5.57" duration="253.00" routeLength="1322.45" waitingTime="2.00" waitingCount="1" stopTime="0.00" timeLoss="22.54" rerouteNo="1" devices="tripinfo_bike76 routing_bike76" vType="bike_bicycle" speedFactor="1.03" vaporized=""/>
    <tripinfo id="veh76" depart="127.00" departLane="143311245#0_1" departPos="5.10" departSpeed="0.00" departDelay="0.48" arrival="359.00" arrivalLane="-115229320#0_0" arrivalPos="1.06" arrivalSpeed="8.02" duration="232.00" routeLength="1345.64" waitingTime="0.00" waitingCount="0" stopTime="0.00" timeLoss="71.17" rerouteNo="1" devices="tripinfo_veh76 routing_veh76" vType="veh_passenger" speedFactor="1.02" vaporized=""/>
    <personinfo id="ped346" depart="340.00" type="ped_pedestrian" speedFactor="1.06" duration="20.00" waitingTime="2.00" timeLoss="4.95" traveltime="20.00">
        <walk depart="340.00" departPos="0.00" arrival="360.00" arrivalPos="3.63" duration="20.00" routeLength="22.10" timeLoss="4.95" maxSpeed="1.47" waitingTime="2.00"/>
    </personinfo>
    <personinfo id="ped80" depart="79.00" type="ped_pedestrian" speedFactor="1.13" duration="283.00" waitingTime="1.00" timeLoss="34.64" traveltime="283.00">
        <walk depart="79.00" departPos="0.00" arrival="362.00" arrivalPos="0.10" duration="283.00" routeLength="391.03" timeLoss="34.64" maxSpeed="1.57" waitingTime="1.00"/>
    </personinfo>
    <tripinfo id="veh0" depart="0.00" departLane="-128130064#1_0" departPos="5.10" departSpeed="0.00" departDelay="0.00" arrival="370.00" arrivalLane="20447183#2_0" arrivalPos="30.56" arrivalSpeed="13.19" duration="370.00" routeLength="2700.90" waitingTime="11.00" waitingCount="1" stopTime="0.00" timeLoss="48.41" rerouteNo="1" devices="tripinfo_veh0 routing_veh0" vType="veh_passenger" speedFactor="1.01" vaporized=""/>
    <tripinfo id="veh49" depart="82.00" departLane="42474489#1_0" departPos="5.10" departSpeed="0.00" departDelay="0.43" arrival="373.00" arrivalLane="22737008#2_1" arrivalPos="8.93" arrivalSpeed="6.36" duration="291.00" routeLength="1863.25" waitingTime="5.00" waitingCount="1" stopTime="0.00" timeLoss="36.51" rerouteNo="1" devices="tripinfo_veh49 routing_veh49" vType="veh_passenger" speedFactor="0.87" vaporized=""/>
    <tripinfo id="veh19" depart="32.00" departLane="55874618#3_1" departPos="5.10" departSpeed="0.00" departDelay="0.37" arrival="375.00" arrivalLane="-531730073#0_1" arrivalPos="6.56" arrivalSpeed="8.01" duration="343.00" routeLength="2265.52" waitingTime="34.00" waitingCount="3" stopTime="0.00" timeLoss="70.40" rerouteNo="1" devices="tripinfo_veh19 routing_veh19" vType="veh_passenger" speedFactor="1.03" vaporized=""/>
    <tripinfo id="bike70" depart="98.00" departLane="-758405104#3_1" departPos="1.70" departSpeed="0.00" departDelay="0.92" arrival="376.00" arrivalLane="-22737021#0_0" arrivalPos="12.77" arrivalSpeed="4.95" duration="278.00" routeLength="1240.21" waitingTime="21.00" waitingCount="1" stopTime="0.00" timeLoss="43.48" rerouteNo="1" devices="tripinfo_bike70 routing_bike70" vType="bike_bicycle" speedFactor="0.96" vaporized=""/>
    <personinfo id="ped94" depart="93.00" type="ped_pedestrian" speedFactor="1.20" duration="284.00" waitingTime="0.00" timeLoss="31.60" traveltime="284.00">
        <walk depart="93.00" departPos="0.00" arrival="377.00" arrivalPos="8.00" duration="284.00" routeLength="421.33" timeLoss="31.60" maxSpeed="1.67" waitingTime="0.00"/>
    </personinfo>
    <tripinfo id="veh60" depart="100.00" departLane="-60844541#0_0" departPos="5.10" departSpeed="0.00" departDelay="0.12" arrival="377.00" arrivalLane="-527943457#1_1" arrivalPos="26.85" arrivalSpeed="7.17" duration="277.00" routeLength="1510.50" waitingTime="60.00" waitingCount="2" stopTime="0.00" timeLoss="90.66" rerouteNo="1" devices="tripinfo_veh60 routing_veh60" vType="veh_passenger" speedFactor="0.96" vaporized=""/>
    <tripinfo id="veh21" depart="35.00" departLane="-19926892_1" departPos="0.20" departSpeed="0.00" departDelay="0.04" arrival="378.00" arrivalLane="52502593#2_0" arrivalPos="127.53" arrivalSpeed="12.67" duration="343.00" routeLength="2154.48" waitingTime="43.00" waitingCount="3" stopTime="0.00" timeLoss="86.36" rerouteNo="1" devices="tripinfo_veh21 routing_veh21" vType="veh_passenger" speedFactor="0.94" vaporized=""/>
    <personinfo id="ped13" depart="13.00" type="ped_pedestrian" speedFactor="1.08" duration="366.00" waitingTime="24.00" timeLoss="58.86" traveltime="366.00">
        <walk depart="13.00" departPos="0.00" arrival="379.00" arrivalPos="14.04" duration="366.00" routeLength="460.84" timeLoss="58.86" maxSpeed="1.50" waitingTime="24.00"/>
    </personinfo>